<?xml version="1.0" encoding="UTF-8"?>
<UPF version="2.0.1">
  <PP_INFO><![CDATA[
Generated using "atomic" code by A. Dal Corso  v.6.4.1
Author: ADC
Generation date: 28Dec2019
Pseudopotential type: USPP
Element: Mo
Functional: PBE
    Suggested minimum cutoff for wavefunctions:  49. Ry
    Suggested minimum cutoff for charge density: 307. Ry
    The Pseudo was generated with a Fully-Relativistic Calculation
    Local Potential by smoothing AE potential with Bessel fncs, cutoff radius:   1.4000
    Pseudopotential contains additional information for spin-orbit calculations.
    Valence configuration:
    nl pn  l   occ       Rcut    Rcut US       E pseu
    4S  1  0  2.00      1.100      1.150    -4.919207
    5S  2  0  2.00      1.100      1.150    -0.356982
    4P  2  1  2.00      1.000      1.600    -3.136111
    4P  2  1  4.00      1.000      1.600    -2.951369
    4D  3  2  4.00      1.300      1.600    -0.419617
    4D  3  2  0.00      1.300      1.600    -0.403018
    Generation configuration:
    4S  1  0  2.00      1.100      1.150    -4.919204
    5S  2  0  2.00      1.100      1.150    -0.356992
    4P  2  1  2.00      1.000      1.600    -3.136115
    4P  2  1  4.00      1.000      1.600    -2.951367
    5P  3  1  0.00      1.000      1.600    -2.500000
    5P  3  1  0.00      1.000      1.600    -2.500000
    4D  3  2  4.00      1.300      1.600    -0.419629
    4D  3  2  0.00      1.300      1.600    -0.403011
    4D  3  2  0.00      1.300      1.600     1.000000
    4D  3  2  0.00      1.300      1.600     1.000000
    Pseudization used: troullier-martins
]]>
    <PP_INPUTFILE><![CDATA[
 &input
   title='Mo',
   zed=42.,
   rel=2,
   config='[Kr] 5s2 5p0 4d4',
   iswitch=3,
   dft='PBE'
 /
 &inputp
   lpaw=.false.,
   pseudotype=3,
   file_pseudopw='Mo.rel-pbe-spn-rrkjus_psl.1.0.0.UPF',
   author='ADC',
   lloc=-1,
   rcloc=1.4,
   which_augfun='PSQ',
   rmatch_augfun_nc=.true.,
   nlcc=.true.,
   new_core_ps=.true.,
   rcore=1.2,
   tm=.true.
 /
6
4S  1  0  2.00  0.00  1.10  1.15  0.0
5S  2  0  2.00  0.00  1.10  1.15  0.0
4P  2  1  6.00  0.00  1.00  1.60  0.0
5P  3  1  0.00 -2.50  1.00  1.60  0.0
4D  3  2  4.00  0.00  1.30  1.60  0.0
4D  3  2  0.00  1.00  1.30  1.60  0.0
]]></PP_INPUTFILE>
  </PP_INFO>
  <!--
 END OF HUMAN READABLE SECTION 
-->
  <PP_HEADER generated="Generated using &quot;atomic&quot; code by A. Dal Corso  v.6.4.1" author="ADC" date="28Dec2019" comment="" element="Mo" pseudo_type="USPP" relativistic="full" is_ultrasoft="true" is_paw="false" is_coulomb="false" has_so="true" has_wfc="false" has_gipaw="false" paw_as_gipaw="false" core_correction="true" functional="PBE" z_valence="1.400000000000e1" total_psenergy="-1.387941145893e2" wfc_cutoff="4.902190368856e1" rho_cutoff="3.065642020423e2" l_max="2" l_max_rho="4" l_local="-1" mesh_size="1229" number_of_wfc="6" number_of_proj="10"/>
  <PP_MESH dx="1.250000000000e-2" mesh="1229" xmin="-7.000000000000e0" rmax="1.000000000000e2" zmesh="4.200000000000e1">
    <PP_R>
      2.171147537034563e-5 2.198457211116720e-5 2.226110398610910e-5 2.254111420383938e-5
      2.282464651652428e-5 2.311174522666450e-5 2.340245519401759e-5 2.369682184260741e-5
      2.399489116782167e-5 2.429670974359892e-5 2.460232472970564e-5 2.491178387910521e-5
      2.522513554541929e-5 2.554242869048326e-5 2.586371289199661e-5 2.618903835126948e-5
      2.651845590106674e-5 2.685201701355076e-5 2.718977380832399e-5 2.753177906057280e-5
      2.787808620931368e-5 2.822874936574316e-5 2.858382332169287e-5 2.894336355819083e-5
      2.930742625413050e-5 2.967606829504880e-5 3.004934728201463e-5 3.042732154062915e-5
      3.081005013013924e-5 3.119759285266572e-5 3.159001026254742e-5 3.198736367580302e-5
      3.238971517971176e-5 3.279712764251469e-5 3.320966472323806e-5 3.362739088164004e-5
      3.405037138828273e-5 3.447867233473085e-5 3.491236064387865e-5 3.535150408040684e-5
      3.579617126137077e-5 3.624643166692219e-5 3.670235565116548e-5 3.716401445315077e-5
      3.763148020800517e-5 3.810482595820392e-5 3.858412566498349e-5 3.906945421989824e-5
      3.956088745652224e-5 4.005850216229860e-5 4.056237609053747e-5 4.107258797256529e-5
      4.158921753002666e-5 4.211234548734097e-5 4.264205358431595e-5 4.317842458891940e-5
      4.372154231021207e-5 4.427149161144288e-5 4.482835842330898e-5 4.539222975738277e-5
      4.596319371970736e-5 4.654133952456350e-5 4.712675750840944e-5 4.771953914399616e-5
      4.831977705466032e-5 4.892756502879665e-5 4.954299803451261e-5 5.016617223446749e-5
      5.079718500089781e-5 5.143613493083224e-5 5.208312186149726e-5 5.273824688591706e-5
      5.340161236870960e-5 5.407332196208111e-5 5.475348062202229e-5 5.544219462470748e-5
      5.613957158310079e-5 5.684572046377080e-5 5.756075160391675e-5 5.828477672860911e-5
      5.901790896824664e-5 5.976026287623331e-5 6.051195444687758e-5 6.127310113351665e-5
      6.204382186686901e-5 6.282423707361718e-5 6.361446869522501e-5 6.441464020699112e-5
      6.522487663734210e-5 6.604530458736876e-5 6.687605225060745e-5 6.771724943307066e-5
      6.856902757352960e-5 6.943151976405161e-5 7.030486077079635e-5 7.118918705507287e-5
      7.208463679466227e-5 7.299134990540816e-5 7.390946806307878e-5 7.483913472550430e-5
      7.578049515499206e-5 7.673369644102443e-5 7.769888752324162e-5 7.867621921471385e-5
      7.966584422550648e-5 8.066791718654077e-5 8.168259467375560e-5 8.271003523257271e-5
      8.375039940266973e-5 8.480384974306501e-5 8.587055085751739e-5 8.695066942024626e-5
      8.804437420197456e-5 8.915183609629954e-5 9.027322814639543e-5 9.140872557205151e-5
      9.255850579705072e-5 9.372274847689244e-5 9.490163552686406e-5 9.609535115046567e-5
      9.730408186819208e-5 9.852801654667706e-5 9.976734642820427e-5 1.010222651605891e-4
      1.022929688274367e-4 1.035796559787802e-4 1.048825276621049e-4 1.062017874537619e-4
      1.075376414907778e-4 1.088902985030636e-4 1.102599698460297e-4 1.116468695336098e-4
      1.130512142717019e-4 1.144732234920282e-4 1.159131193864229e-4 1.173711269415488e-4
      1.188474739740528e-4 1.203423911661622e-4 1.218561121017298e-4 1.233888733027315e-4
      1.249409142662234e-4 1.265124775017637e-4 1.281038085693053e-4 1.297151561175649e-4
      1.313467719228755e-4 1.329989109285262e-4 1.346718312845978e-4 1.363657943882997e-4
      1.380810649248129e-4 1.398179109086489e-4 1.415766037255261e-4 1.433574181747752e-4
      1.451606325122771e-4 1.469865284939405e-4 1.488353914197276e-4 1.507075101782321e-4
      1.526031772918186e-4 1.545226889623306e-4 1.564663451173717e-4 1.584344494571708e-4
      1.604273095020349e-4 1.624452366404007e-4 1.644885461774888e-4 1.665575573845717e-4
      1.686525935488601e-4 1.707739820240167e-4 1.729220542813069e-4 1.750971459613913e-4
      1.772995969267700e-4 1.795297513148875e-4 1.817879575919038e-4 1.840745686071445e-4
      1.863899416482327e-4 1.887344384969165e-4 1.911084254855990e-4 1.935122735545765e-4
      1.959463583100007e-4 1.984110600825669e-4 2.009067639869412e-4 2.034338599819368e-4
      2.059927429314437e-4 2.085838126661292e-4 2.112074740459109e-4 2.138641370232171e-4
      2.165542167070434e-4 2.192781334278129e-4 2.220363128030554e-4 2.248291858039098e-4
      2.276571888224644e-4 2.305207637399451e-4 2.334203579957578e-4 2.363564246574051e-4
      2.393294224912759e-4 2.423398160343302e-4 2.453880756666845e-4 2.484746776851073e-4
      2.516001043774442e-4 2.547648440979745e-4 2.579693913437179e-4 2.612142468317021e-4
      2.644999175771978e-4 2.678269169729444e-4 2.711957648693661e-4 2.746069876558005e-4
      2.780611183427489e-4 2.815586966451576e-4 2.851002690667529e-4 2.886863889854309e-4
      2.923176167397246e-4 2.959945197163593e-4 2.997176724389046e-4 3.034876566575493e-4
      3.073050614399970e-4 3.111704832635114e-4 3.150845261081176e-4 3.190478015509721e-4
      3.230609288619271e-4 3.271245351002892e-4 3.312392552128005e-4 3.354057321328509e-4
      3.396246168809346e-4 3.438965686663781e-4 3.482222549903386e-4 3.526023517501048e-4
      3.570375433447075e-4 3.615285227818558e-4 3.660759917862245e-4 3.706806609090973e-4
      3.753432496393926e-4 3.800644865160863e-4 3.848451092420446e-4 3.896858647992959e-4
      3.945875095657442e-4 3.995508094333562e-4 4.045765399278353e-4 4.096654863297949e-4
      4.148184437974646e-4 4.200362174909325e-4 4.253196226979532e-4 4.306694849613408e-4
      4.360866402079566e-4 4.415719348793306e-4 4.471262260639145e-4 4.527503816310061e-4
      4.584452803663555e-4 4.642118121094761e-4 4.700508778926853e-4 4.759633900818912e-4
      4.819502725191522e-4 4.880124606670300e-4 4.941509017547557e-4 5.003665549262388e-4
      5.066603913899328e-4 5.130333945705898e-4 5.194865602629232e-4 5.260208967872011e-4
      5.326374251468001e-4 5.393371791877374e-4 5.461212057602125e-4 5.529905648821804e-4
      5.599463299049788e-4 5.669895876810448e-4 5.741214387337351e-4 5.813429974292865e-4
      5.886553921509380e-4 5.960597654752417e-4 6.035572743505939e-4 6.111490902780103e-4
      6.188363994941749e-4 6.266204031567931e-4 6.345023175322735e-4 6.424833741857734e-4
      6.505648201736326e-4 6.587479182382280e-4 6.670339470052815e-4 6.754242011836453e-4
      6.839199917676056e-4 6.925226462417255e-4 7.012335087882687e-4 7.100539404972311e-4
      7.189853195790119e-4 7.280290415797642e-4 7.371865195994499e-4 7.464591845126402e-4
      7.558484851920941e-4 7.653558887351446e-4 7.749828806929387e-4 7.847309653025563e-4
      7.946016657220495e-4 8.045965242684417e-4 8.147171026587150e-4 8.249649822538339e-4
      8.353417643058343e-4 8.458490702080230e-4 8.564885417483254e-4 8.672618413658151e-4
      8.781706524104765e-4 8.892166794062289e-4 9.004016483172638e-4 9.117273068177301e-4
      9.231954245648097e-4 9.348077934752338e-4 9.465662280052694e-4 9.584725654342344e-4
      9.705286661515768e-4 9.827364139475605e-4 9.950977163076171e-4 1.007614504710388e-3
      1.020288734929528e-3 1.033122387339295e-3 1.046117467223986e-3 1.059276005091274e-3
      1.072600056989472e-3 1.086091704828795e-3 1.099753056706669e-3 1.113586247237119e-3
      1.127593437884308e-3 1.141776817300273e-3 1.156138601666904e-3 1.170681035042228e-3
      1.185406389711047e-3 1.200316966539985e-3 1.215415095337010e-3 1.230703135215462e-3
      1.246183474962676e-3 1.261858533413233e-3 1.277730759826908e-3 1.293802634271369e-3
      1.310076668009697e-3 1.326555403892771e-3 1.343241416756604e-3 1.360137313824650e-3
      1.377245735115202e-3 1.394569353853894e-3 1.412110876891398e-3 1.429873045126380e-3
      1.447858633933761e-3 1.466070453598387e-3 1.484511349754130e-3 1.503184203828533e-3
      1.522091933493037e-3 1.541237493118870e-3 1.560623874238675e-3 1.580254106013944e-3
      1.600131255708328e-3 1.620258429166910e-3 1.640638771301490e-3 1.661275466581992e-3
      1.682171739534039e-3 1.703330855242791e-3 1.724756119863130e-3 1.746450881136241e-3
      1.768418528912712e-3 1.790662495682201e-3 1.813186257109770e-3 1.835993332578969e-3
      1.859087285741742e-3 1.882471725075255e-3 1.906150304445728e-3 1.930126723679363e-3
      1.954404729140448e-3 1.978988114316728e-3 2.003880720412152e-3 2.029086436947068e-3
      2.054609202365964e-3 2.080453004652866e-3 2.106621881954460e-3 2.133119923211065e-3
      2.159951268795537e-3 2.187120111160212e-3 2.214630695491988e-3 2.242487320375635e-3
      2.270694338465468e-3 2.299256157165449e-3 2.328177239317858e-3 2.357462103900626e-3
      2.387115326733422e-3 2.417141541192644e-3 2.447545438935391e-3 2.478331770632539e-3
      2.509505346711056e-3 2.541071038105624e-3 2.573033777019746e-3 2.605398557696405e-3
      2.638170437198428e-3 2.671354536198661e-3 2.704956039780090e-3 2.738980198246010e-3
      2.773432327940406e-3 2.808317812078633e-3 2.843642101588562e-3 2.879410715962302e-3
      2.915629244118618e-3 2.952303345276221e-3 2.989438749838031e-3 3.027041260286562e-3
      3.065116752090577e-3 3.103671174623135e-3 3.142710552091197e-3 3.182240984476917e-3
      3.222268648490779e-3 3.262799798536726e-3 3.303840767689412e-3 3.345397968683766e-3
      3.387477894916993e-3 3.430087121463173e-3 3.473232306100653e-3 3.516920190352306e-3
      3.561157600538932e-3 3.605951448845873e-3 3.651308734403059e-3 3.697236544378643e-3
      3.743742055086373e-3 3.790832533106913e-3 3.838515336423259e-3 3.886797915570439e-3
      3.935687814799680e-3 3.985192673257204e-3 4.035320226177862e-3 4.086078306093782e-3
      4.137474844058218e-3 4.189517870884798e-3 4.242215518402345e-3 4.295576020725496e-3
      4.349607715541304e-3 4.404319045412008e-3 4.459718559094216e-3 4.515814912874650e-3
      4.572616871922720e-3 4.630133311660087e-3 4.688373219147478e-3 4.747345694488932e-3
      4.807059952253701e-3 4.867525322916050e-3 4.928751254313162e-3 4.990747313121377e-3
      5.053523186351026e-3 5.117088682860016e-3 5.181453734886500e-3 5.246628399600811e-3
      5.312622860676901e-3 5.379447429883593e-3 5.447112548695774e-3 5.515628789925926e-3
      5.585006859376139e-3 5.655257597510909e-3 5.726391981151004e-3 5.798421125188590e-3
      5.871356284323968e-3 5.945208854824137e-3 6.019990376303487e-3 6.095712533526907e-3
      6.172387158235515e-3 6.250026230995415e-3 6.328641883069684e-3 6.408246398313900e-3
      6.488852215095539e-3 6.570471928237458e-3 6.653118290985892e-3 6.736804217003167e-3
      6.821542782385479e-3 6.907347227706079e-3 6.994230960084118e-3 7.082207555279540e-3
      7.171290759814340e-3 7.261494493120458e-3 7.352832849714758e-3 7.445320101401283e-3
      7.538970699501270e-3 7.633799277111210e-3 7.729820651389280e-3 7.827049825870576e-3
      7.925501992811421e-3 8.025192535563203e-3 8.126137030976047e-3 8.228351251832727e-3
      8.331851169313225e-3 8.436652955490210e-3 8.542772985855995e-3 8.650227841881225e-3
      8.759034313605770e-3 8.869209402262214e-3 8.980770322932310e-3 9.093734507236883e-3
      9.208119606059560e-3 9.323943492304739e-3 9.441224263690309e-3 9.559980245575399e-3
      9.680229993823794e-3 9.801992297703304e-3 9.925286182821626e-3 1.005013091409918e-2
      1.017654599877921e-2 1.030455118947589e-2 1.043416648726070e-2 1.056541214478762e-2
      1.069830866945766e-2 1.083287682662318e-2 1.096913764283252e-2 1.110711240911544e-2
      1.124682268430987e-2 1.138829029843057e-2 1.153153735608006e-2 1.167658623990253e-2
      1.182345961408119e-2 1.197218042787954e-2 1.212277191922736e-2 1.227525761835153e-2
      1.242966135145277e-2 1.258600724442852e-2 1.274431972664263e-2 1.290462353474255e-2
      1.306694371652444e-2 1.323130563484695e-2 1.339773497159420e-2 1.356625773168864e-2
      1.373690024715445e-2 1.390968918123181e-2 1.408465153254322e-2 1.426181463931204e-2
      1.444120618363413e-2 1.462285419580328e-2 1.480678705869096e-2 1.499303351218120e-2
      1.518162265766128e-2 1.537258396256886e-2 1.556594726499636e-2 1.576174277835320e-2
      1.596000109608666e-2 1.616075319646226e-2 1.636403044740410e-2 1.656986461139624e-2
      1.677828785044556e-2 1.698933273110721e-2 1.720303222957316e-2 1.741941973682480e-2
      1.763852906385043e-2 1.786039444692815e-2 1.808505055297545e-2 1.831253248496598e-2
      1.854287578741440e-2 1.877611645193040e-2 1.901229092284232e-2 1.925143610289173e-2
      1.949358935899958e-2 1.973878852810477e-2 1.998707192307636e-2 2.023847833869997e-2
      2.049304705773948e-2 2.075081785707520e-2 2.101183101391894e-2 2.127612731210752e-2
      2.154374804847524e-2 2.181473503930662e-2 2.208913062687032e-2 2.236697768603514e-2
      2.264831963096939e-2 2.293320042192434e-2 2.322166457210317e-2 2.351375715461624e-2
      2.380952380952381e-2 2.410901075096749e-2 2.441226477439117e-2 2.471933326385299e-2
      2.503026419942916e-2 2.534510616471093e-2 2.566390835439599e-2 2.598672058197505e-2
      2.631359328751543e-2 2.664457754554241e-2 2.697972507301967e-2 2.731908823743030e-2
      2.766272006495913e-2 2.801067424877836e-2 2.836300515743712e-2 2.871976784335668e-2
      2.908101805143262e-2 2.944681222774488e-2 2.981720752837774e-2 3.019226182835049e-2
      3.057203373066051e-2 3.095658257544027e-2 3.134596844922910e-2 3.174025219436199e-2
      3.213949541847628e-2 3.254376050413801e-2 3.295311061858933e-2 3.336760972361842e-2
      3.378732258555376e-2 3.421231478538394e-2 3.464265272900479e-2 3.507840365759561e-2
      3.551963565812549e-2 3.596641767399222e-2 3.641881951579476e-2 3.687691187224126e-2
      3.734076632119451e-2 3.781045534085581e-2 3.828605232109009e-2 3.876763157489313e-2
      3.925526835000305e-2 3.974903884065817e-2 4.024902019950219e-2 4.075529054963965e-2
      4.126792899684277e-2 4.178701564191186e-2 4.231263159319139e-2 4.284485897924307e-2
      4.338378096167881e-2 4.392948174815478e-2 4.448204660552911e-2 4.504156187318500e-2
      4.560811497652135e-2 4.618179444061322e-2 4.676268990404401e-2 4.735089213291172e-2
      4.794649303501136e-2 4.854958567419562e-2 4.916026428491637e-2 4.977862428694898e-2
      5.040476230030179e-2 5.103877616031332e-2 5.168076493293912e-2 5.233082893023102e-2
      5.298906972601118e-2 5.365559017174306e-2 5.433049441260248e-2 5.501388790375011e-2
      5.570587742680933e-2 5.640657110655099e-2 5.711607842778806e-2 5.783451025248306e-2
      5.856197883707025e-2 5.929859784999600e-2 6.004448238947976e-2 6.079974900149826e-2
      6.156451569799636e-2 6.233890197532624e-2 6.312302883291922e-2 6.391701879219220e-2
      6.472099591569156e-2 6.553508582647874e-2 6.635941572775837e-2 6.719411442275475e-2
      6.803931233483728e-2 6.889514152789909e-2 6.976173572699297e-2 7.063923033922544e-2
      7.152776247491505e-2 7.242747096901585e-2 7.333849640281026e-2 7.426098112587608e-2
      7.519506927832785e-2 7.614090681333987e-2 7.709864151995150e-2 7.806842304615889e-2
      7.905040292229883e-2 8.004473458472454e-2 8.105157339978138e-2 8.207107668808279e-2
      8.310340374909146e-2 8.414871588601127e-2 8.520717643099001e-2 8.627895077064146e-2
      8.736420637188683e-2 8.846311280812152e-2 8.957584178571224e-2 9.070256717082529e-2
      9.184346501659459e-2 9.299871359062987e-2 9.416849340287088e-2 9.535298723379356e-2
      9.655238016296847e-2 9.776685959798122e-2 9.899661530371453e-2 1.002418394319990e-1
      1.015027265516386e-1 1.027794736788106e-1 1.040722803078513e-1 1.053813484424271e-1
      1.067068826270968e-1 1.080490899792740e-1 1.094081802215878e-1 1.107843657146540e-1
      1.121778614902558e-1 1.135888852849429e-1 1.150176575740544e-1 1.164644016061668e-1
      1.179293434379789e-1 1.194127119696325e-1 1.209147389804781e-1 1.224356591652927e-1
      1.239757101709488e-1 1.255351326335498e-1 1.271141702160281e-1 1.287130696462182e-1
      1.303320807554096e-1 1.319714565173815e-1 1.336314530879323e-1 1.353123298449035e-1
      1.370143494287079e-1 1.387377777833686e-1 1.404828841980719e-1 1.422499413492458e-1
      1.440392253431655e-1 1.458510157590949e-1 1.476855956929731e-1 1.495432518016468e-1
      1.514242743476626e-1 1.533289572446206e-1 1.552575981030979e-1 1.572104982771532e-1
      1.591879629114112e-1 1.611903009887446e-1 1.632178253785520e-1 1.652708528856437e-1
      1.673497042997452e-1 1.694547044456190e-1 1.715861822338206e-1 1.737444707120913e-1
      1.759299071173964e-1 1.781428329286211e-1 1.803835939199250e-1 1.826525402147721e-1
      1.849500263406376e-1 1.872764112844022e-1 1.896320585484471e-1 1.920173362074494e-1
      1.944326169658963e-1 1.968782782163208e-1 1.993547020982682e-1 2.018622755580091e-1
      2.044013904089975e-1 2.069724433930953e-1 2.095758362425622e-1 2.122119757428271e-1
      2.148812737960507e-1 2.175841474854840e-1 2.203210191406402e-1 2.230923164032842e-1
      2.258984722942506e-1 2.287399252811074e-1 2.316171193466640e-1 2.345305040583471e-1
      2.374805346384459e-1 2.404676720352394e-1 2.434923829950240e-1 2.465551401350404e-1
      2.496564220173231e-1 2.527967132234765e-1 2.559765044303894e-1 2.591962924869083e-1
      2.624565804914668e-1 2.657578778706991e-1 2.691007004590378e-1 2.724855705793124e-1
      2.759130171243667e-1 2.793835756396956e-1 2.828977884071285e-1 2.864562045295605e-1
      2.900593800167494e-1 2.937078778721968e-1 2.974022681811146e-1 3.011431281995053e-1
      3.049310424443581e-1 3.087666027849794e-1 3.126504085354769e-1 3.165830665483997e-1
      3.205651913095645e-1 3.245974050340658e-1 3.286803377635023e-1 3.328146274644202e-1
      3.370009201279954e-1 3.412398698709750e-1 3.455321390378792e-1 3.498783983044986e-1
      3.542793267826869e-1 3.587356121264713e-1 3.632479506395043e-1 3.678170473838578e-1
      3.724436162901946e-1 3.771283802693199e-1 3.818720713251351e-1 3.866754306690204e-1
      3.915392088356444e-1 3.964641658002415e-1 4.014510710973583e-1 4.065007039410919e-1
      4.116138533468491e-1 4.167913182546259e-1 4.220339076538487e-1 4.273424407097775e-1
      4.327177468915016e-1 4.381606661015494e-1 4.436720488071194e-1 4.492527561729735e-1
      4.549036601959921e-1 4.606256438414242e-1 4.664196011808576e-1 4.722864375319126e-1
      4.782270695997064e-1 4.842424256200863e-1 4.903334455046675e-1 4.965010809877008e-1
      5.027462957747768e-1 5.090700656934129e-1 5.154733788455256e-1 5.219572357618207e-1
      5.285226495581349e-1 5.351706460937292e-1 5.419022641315888e-1 5.487185555007286e-1
      5.556205852605411e-1 5.626094318672203e-1 5.696861873422655e-1 5.768519574431186e-1
      5.841078618359374e-1 5.914550342705440e-1 5.988946227575809e-1 6.064277897478832e-1
      6.140557123141205e-1 6.217795823347140e-1 6.296006066800667e-1 6.375200074011466e-1
      6.455390219204263e-1 6.536589032252405e-1 6.618809200635640e-1 6.702063571422537e-1
      6.786365153277933e-1 6.871727118495484e-1 6.958162805055938e-1 7.045685718711185e-1
      7.134309535094530e-1 7.224048101857610e-1 7.314915440834032e-1 7.406925750230395e-1
      7.500093406844753e-1 7.594432968312976e-1 7.689959175383505e-1 7.786686954220517e-1
      7.884631418736264e-1 7.983807872952610e-1 8.084231813392273e-1 8.185918931500293e-1
      8.288885116095726e-1 8.393146455854414e-1 8.498719241822835e-1 8.605619969963556e-1
      8.713865343732866e-1 8.823472276690618e-1 8.934457895143096e-1 9.046839540819001e-1
      9.160634773579080e-1 9.275861374160005e-1 9.392537346952514e-1 9.510680922814746e-1
      9.630310561920817e-1 9.751444956645191e-1 9.874103034483527e-1 9.998303961010002e-1
      1.012406714287209e0 1.025141223082285e0 1.038035912279131e0 1.051092796699173e0
      1.064313916507163e0 1.077701337529971e0 1.091257151579369e0 1.104983476778880e0
      1.118882457894746e0 1.132956266671040e0 1.147207102169019e0 1.161637191110725e0
      1.176248788226909e0 1.191044176609353e0 1.206025668067587e0 1.221195603490136e0
      1.236556353210274e0 1.252110317376392e0 1.267859926327040e0 1.283807640970656e0
      1.299955953170101e0 1.316307386132012e0 1.332864494801051e0 1.349629866259140e0
      1.366606120129672e0 1.383795908986857e0 1.401201918770178e0 1.418826869204071e0
      1.436673514222906e0 1.454744642401271e0 1.473043077389712e0 1.491571678355927e0
      1.510333340431508e0 1.529330995164332e0 1.548567610976596e0 1.568046193628659e0
      1.587769786688695e0 1.607741472008242e0 1.627964370203767e0 1.648441641144253e0
      1.669176484444949e0 1.690172139967308e0 1.711431888325216e0 1.732959051397613e0
      1.754756992847520e0 1.776829118647641e0 1.799178877612540e0 1.821809761937521e0
      1.844725307744309e0 1.867929095633551e0 1.891424751244317e0 1.915215945820603e0
      1.939306396784956e0 1.963699868319360e0 1.988400171953364e0 2.013411167159667e0
      2.038736761957158e0 2.064380913521545e0 2.090347628803689e0 2.116640965155674e0
      2.143265030964805e0 2.170223986295535e0 2.197522043539474e0 2.225163468073613e0
      2.253152578926765e0 2.281493749454449e0 2.310191408022225e0 2.339250038697620e0
      2.368674181950808e0 2.398468435364027e0 2.428637454349992e0 2.459185952879306e0
      2.490118704217005e0 2.521440541668429e0 2.553156359334394e0 2.585271112875943e0
      2.617789820288658e0 2.650717562686723e0 2.684059485096889e0 2.717820797262358e0
      2.752006774456849e0 2.786622758308855e0 2.821674157636270e0 2.857166449291561e0
      2.893105179017499e0 2.929495962313727e0 2.966344485314178e0 3.003656505675528e0
      3.041437853476882e0 3.079694432130690e0 3.118432219305205e0 3.157657267858492e0
      3.197375706784179e0 3.237593742169170e0 3.278317658163303e0 3.319553817961313e0
      3.361308664797071e0 3.403588722950334e0 3.446400598766218e0 3.489750981687409e0
      3.533646645299443e0 3.578094448389071e0 3.623101336015943e0 3.668674340597831e0
      3.714820583009407e0 3.761547273694939e0 3.808861713794921e0 3.856771296286865e0
      3.905283507140523e0 3.954405926487527e0 4.004146229805844e0 4.054512189119075e0
      4.105511674210818e0 4.157152653854392e0 4.209443197057915e0 4.262391474325159e0
      4.316005758932175e0 4.370294428219999e0 4.425265964903675e0 4.480928958397631e0
      4.537292106157857e0 4.594364215040871e0 4.652154202679784e0 4.710671098877755e0
      4.769924047018853e0 4.829922305496783e0 4.890675249161508e0 4.952192370784063e0
      5.014483282539875e0 5.077557717510620e0 5.141425531205098e0 5.206096703099147e0
      5.271581338194933e0 5.337889668599935e0 5.405032055125669e0 5.473018988906639e0
      5.541861093039579e0 5.611569124243300e0 5.682153974539521e0 5.753626672954685e0
      5.825998387243343e0 5.899280425633103e0 5.973484238591538e0 6.048621420615412e0
      6.124703712042261e0 6.201743000884924e0 6.279751324689030e0 6.358740872413860e0
      6.438723986336976e0 6.519713163982632e0 6.601721060074619e0 6.684760488513560e0
      6.768844424379070e0 6.853986005957223e0 6.940198536793337e0 7.027495487770769e0
      7.115890499215728e0 7.205397383028568e0 7.296030124842014e0 7.387802886206343e0
      7.480730006802243e0 7.574826006681382e0 7.670105588535155e0 7.766583639992103e0
      7.864275235944022e0 7.963195640901549e0 8.063360311379228e0 8.164784898310581e0
      8.267485249493692e0 8.371477412067353e0 8.476777635018550e0 8.583402371721373e0
      8.691368282507831e0 8.800692237271173e0 8.911391318101717e0 9.023482821956085e0
      9.136984263359816e0 9.251913377144019e0 9.368288121216583e0 9.486126679367999e0
      9.605447464112741e0 9.726269119566203e0 9.848610524357829e0 9.972490794581054e0
      1.009792928678011e1 1.022494560097462e1 1.035355958372211e1 1.048379133121902e1
      1.061566119244090e1 1.074918977232180e1 1.088439793497402e1 1.102130680694809e1
      1.115993778053374e1 1.130031251710269e1 1.144245295049308e1 1.158638129043684e1
      1.173212002602992e1 1.187969192924624e1 1.202912005849594e1 1.218042776222820e1
      1.233363868257957e1 1.248877675906811e1 1.264586623233384e1 1.280493164792661e1
      1.296599786014118e1 1.312909003590092e1 1.329423365869014e1 1.346145453253584e1
      1.363077878603981e1 1.380223287646110e1 1.397584359385021e1 1.415163806523496e1
      1.432964375885910e1 1.450988848847448e1 1.469240041768676e1 1.487720806435621e1
      1.506434030505367e1 1.525382637957240e1 1.544569589549712e1 1.563997883282999e1
      1.583670554867528e1 1.603590678198261e1 1.623761365834989e1 1.644185769488701e1
      1.664867080514014e1 1.685808530407856e1 1.707013391314381e1 1.728484976536241e1
      1.750226641052319e1 1.772241782041921e1 1.794533839415622e1 1.817106296352742e1
      1.839962679845595e1 1.863106561250611e1 1.886541556846338e1 1.910271328398522e1
      1.934299583732248e1 1.958630077311291e1 1.983266610824783e1 2.008213033781199e1
      2.033473244109885e1 2.059051188770100e1 2.084950864367729e1 2.111176317779784e1
      2.137731646786710e1 2.164621000712696e1 2.191848581074002e1 2.219418642235448e1
      2.247335492075190e1 2.275603492657804e1 2.304227060915897e1 2.333210669340248e1
      2.362558846678634e1 2.392276178643481e1 2.422367308628360e1 2.452836938433557e1
      2.483689829000724e1 2.514930801156774e1 2.546564736367177e1 2.578596577498658e1
      2.611031329591568e1 2.643874060641917e1 2.677129902393240e1 2.710804051138479e1
      2.744901768531878e1 2.779428382411156e1 2.814389287629981e1 2.849789946900913e1
      2.885635891648996e1 2.921932722876016e1 2.958686112035704e1 2.995901801919897e1
      3.033585607555843e1 3.071743417114853e1 3.110381192832293e1 3.149504971939232e1
      3.189120867605760e1 3.229235069896163e1 3.269853846736172e1 3.310983544892298e1
      3.352630590963561e1 3.394801492385648e1 3.437502838447692e1 3.480741301321904e1
      3.524523637106063e1 3.568856686879220e1 3.613747377770602e1 3.659202724041982e1
      3.705229828183705e1 3.751835882024424e1 3.799028167854879e1 3.846814059565751e1
      3.895201023799827e1 3.944196621118726e1 3.993808507184199e1 4.044044433954386e1
      4.094912250895058e1 4.146419906206089e1 4.198575448063428e1 4.251387025876588e1
      4.304862891562055e1 4.359011400832649e1 4.413841014503092e1 4.469360299812088e1
      4.525577931760906e1 4.582502694468922e1 4.640143482546131e1 4.698509302482925e1
      4.757609274057431e1 4.817452631760432e1 4.878048726238329e1 4.939407025754175e1
      5.001537117667090e1 5.064448709930354e1 5.128151632608239e1 5.192655839412023e1
      5.257971409255264e1 5.324108547828619e1 5.391077589194564e1 5.458888997402044e1
      5.527553368121565e1 5.597081430300757e1 5.667484047840777e1 5.738772221293866e1
      5.810957089582145e1 5.884049931738156e1 5.958062168667204e1 6.033005364931867e1
      6.108891230559056e1 6.185731622869645e1 6.263538548331276e1 6.342324164434363e1
      6.422100781591691e1 6.502880865062018e1 6.584677036897715e1 6.667502077917056e1
      6.751368929701222e1 6.836290696616409e1 6.922280647861496e1 7.009352219541286e1
      7.097519016766021e1 7.186794815777152e1 7.277193566099879e1 7.368729392722893e1
      7.461416598305298e1 7.555269665411562e1 7.650303258774375e1 7.746532227586020e1
      7.843971607818681e1 7.942636624573734e1 8.042542694460797e1 8.143705428006564e1
      8.246140632093940e1 8.349864312431999e1 8.454892676056792e1 8.561242133863830e1